Generated by pymatgen.io.lammps.data.LammpsData

360  atoms

  2  atom types

0.00000000 16.75306815  xlo xhi
0.00000000 21.76287391  ylo yhi
0.00000000 31.41995029  zlo zhi

Masses

1  208.9804
2   78.9600

Atoms

1    1  1.00051  2.09413352 13.29953406 22.89266007
2    1  1.00051  4.18826704 16.92667971 22.89266007
3    1  1.00051  2.09413352  6.04524275 22.89266007
4    1  1.00051  4.18826704  9.67238841 22.89266007
5    1  1.00051  6.28240056 13.29953406 22.89266007
6    1  1.00051  8.37653407 16.92667971 22.89266007
7    1  1.00051  2.09413352 20.55382536 22.89266007
8    1  1.00051  4.18826704  2.41809710 22.89266007
9    1  1.00051  6.28240056  6.04524275 22.89266007
10   1  1.00051  8.37653407  9.67238841 22.89266007
11   1  1.00051 10.47066759 13.29953406 22.89266007
12   1  1.00051 12.56480111 16.92667971 22.89266007
13   1  1.00051  6.28240056 20.55382536 22.89266007
14   1  1.00051  8.37653407  2.41809710 22.89266007
15   1  1.00051 10.47066759  6.04524275 22.89266007
16   1  1.00051 12.56480111  9.67238841 22.89266007
17   1  1.00051 14.65893463 13.29953406 22.89266007
18   1  1.00051 16.75306815 16.92667971 22.89266007
19   1  1.00051 10.47066759 20.55382536 22.89266007
20   1  1.00051 12.56480111  2.41809710 22.89266007
21   1  1.00051 14.65893463  6.04524275 22.89266007
22   1  1.00051 16.75306815  9.67238841 22.89266007
23   1  1.00051 14.65893463 20.55382536 22.89266007
24   1  1.00051 16.75306815  2.41809710 22.89266007
25   1  0.99815  2.09413352 13.29953406 29.47392374
26   1  0.99815  4.18826704 16.92667971 29.47392374
27   1  0.99815  2.09413352  6.04524275 29.47392374
28   1  0.99815  4.18826704  9.67238841 29.47392374
29   1  0.99815  6.28240056 13.29953406 29.47392374
30   1  0.99815  8.37653407 16.92667971 29.47392374
31   1  0.99815  2.09413352 20.55382536 29.47392374
32   1  0.99815  4.18826704  2.41809710 29.47392374
33   1  0.99815  6.28240056  6.04524275 29.47392374
34   1  0.99815  8.37653407  9.67238841 29.47392374
35   1  0.99815 10.47066759 13.29953406 29.47392374
36   1  0.99815 12.56480111 16.92667971 29.47392374
37   1  0.99815  6.28240056 20.55382536 29.47392374
38   1  0.99815  8.37653407  2.41809710 29.47392374
39   1  0.99815 10.47066759  6.04524275 29.47392374
40   1  0.99815 12.56480111  9.67238841 29.47392374
41   1  0.99815 14.65893463 13.29953406 29.47392374
42   1  0.99815 16.75306815 16.92667971 29.47392374
43   1  0.99815 10.47066759 20.55382536 29.47392374
44   1  0.99815 12.56480111  2.41809710 29.47392374
45   1  0.99815 14.65893463  6.04524275 29.47392374
46   1  0.99815 16.75306815  9.67238841 29.47392374
47   1  0.99815 14.65893463 20.55382536 29.47392374
48   1  0.99815 16.75306815  2.41809710 29.47392374
49   1  0.99814  2.09413352 15.71763116  1.94602655
50   1  0.99814  4.18826704 19.34477681  1.94602655
51   1  0.99814  2.09413352  8.46333985  1.94602655
52   1  0.99814  4.18826704 12.09048551  1.94602655
53   1  0.99814  6.28240056 15.71763116  1.94602655
54   1  0.99814  8.37653407 19.34477681  1.94602655
55   1  0.99814  2.09413352  1.20904855  1.94602655
56   1  0.99814  4.18826704  4.83619420  1.94602655
57   1  0.99814  6.28240056  8.46333985  1.94602655
58   1  0.99814  8.37653407 12.09048551  1.94602655
59   1  0.99814 10.47066759 15.71763116  1.94602655
60   1  0.99814 12.56480111 19.34477681  1.94602655
61   1  0.99814  6.28240056  1.20904855  1.94602655
62   1  0.99814  8.37653407  4.83619420  1.94602655
63   1  0.99814 10.47066759  8.46333985  1.94602655
64   1  0.99814 12.56480111 12.09048551  1.94602655
65   1  0.99814 14.65893463 15.71763116  1.94602655
66   1  0.99814 16.75306815 19.34477681  1.94602655
67   1  0.99814 10.47066759  1.20904855  1.94602655
68   1  0.99814 12.56480111  4.83619420  1.94602655
69   1  0.99814 14.65893463  8.46333985  1.94602655
70   1  0.99814 16.75306815 12.09048551  1.94602655
71   1  0.99814 14.65893463  1.20904855  1.94602655
72   1  0.99814 16.75306815  4.83619420  1.94602655
73   1  1.00055  2.09413352 15.71763116  8.52729021
74   1  1.00055  4.18826704 19.34477681  8.52729021
75   1  1.00055  2.09413352  8.46333985  8.52729021
76   1  1.00055  4.18826704 12.09048551  8.52729021
77   1  1.00055  6.28240056 15.71763116  8.52729021
78   1  1.00055  8.37653407 19.34477681  8.52729021
79   1  1.00055  2.09413352  1.20904855  8.52729021
80   1  1.00055  4.18826704  4.83619420  8.52729021
81   1  1.00055  6.28240056  8.46333985  8.52729021
82   1  1.00055  8.37653407 12.09048551  8.52729021
83   1  1.00055 10.47066759 15.71763116  8.52729021
84   1  1.00055 12.56480111 19.34477681  8.52729021
85   1  1.00055  6.28240056  1.20904855  8.52729021
86   1  1.00055  8.37653407  4.83619420  8.52729021
87   1  1.00055 10.47066759  8.46333985  8.52729021
88   1  1.00055 12.56480111 12.09048551  8.52729021
89   1  1.00055 14.65893463 15.71763116  8.52729021
90   1  1.00055 16.75306815 19.34477681  8.52729021
91   1  1.00055 10.47066759  1.20904855  8.52729021
92   1  1.00055 12.56480111  4.83619420  8.52729021
93   1  1.00055 14.65893463  8.46333985  8.52729021
94   1  1.00055 16.75306815 12.09048551  8.52729021
95   1  1.00055 14.65893463  1.20904855  8.52729021
96   1  1.00055 16.75306815  4.83619420  8.52729021
97   1  0.99247 -0.00000000 14.50858261 12.41934331
98   1  0.99247  2.09413352 18.13572826 12.41934331
99   1  0.99247 -0.00000000  7.25429130 12.41934331
100  1  0.99247  2.09413352 10.88143696 12.41934331
101  1  0.99247  4.18826704 14.50858261 12.41934331
102  1  0.99247  6.28240056 18.13572826 12.41934331
103  1  0.99247 -0.00000000 21.76287391 12.41934331
104  1  0.99247  2.09413352  3.62714565 12.41934331
105  1  0.99247  4.18826704  7.25429130 12.41934331
106  1  0.99247  6.28240056 10.88143696 12.41934331
107  1  0.99247  8.37653407 14.50858261 12.41934331
108  1  0.99247 10.47066759 18.13572826 12.41934331
109  1  0.99247  4.18826704 21.76287391 12.41934331
110  1  0.99247  6.28240056  3.62714565 12.41934331
111  1  0.99247  8.37653407  7.25429130 12.41934331
112  1  0.99247 10.47066759 10.88143696 12.41934331
113  1  0.99247 12.56480111 14.50858261 12.41934331
114  1  0.99247 14.65893463 18.13572826 12.41934331
115  1  0.99247  8.37653407 21.76287391 12.41934331
116  1  0.99247 10.47066759  3.62714565 12.41934331
117  1  0.99247 12.56480111  7.25429130 12.41934331
118  1  0.99247 14.65893463 10.88143696 12.41934331
119  1  0.99247 12.56480111 21.76287391 12.41934331
120  1  0.99247 14.65893463  3.62714565 12.41934331
121  1  0.99250 -0.00000000 14.50858261 19.00060698
122  1  0.99250  2.09413352 18.13572826 19.00060698
123  1  0.99250 -0.00000000  7.25429130 19.00060698
124  1  0.99250  2.09413352 10.88143696 19.00060698
125  1  0.99250  4.18826704 14.50858261 19.00060698
126  1  0.99250  6.28240056 18.13572826 19.00060698
127  1  0.99250 -0.00000000 21.76287391 19.00060698
128  1  0.99250  2.09413352  3.62714565 19.00060698
129  1  0.99250  4.18826704  7.25429130 19.00060698
130  1  0.99250  6.28240056 10.88143696 19.00060698
131  1  0.99250  8.37653407 14.50858261 19.00060698
132  1  0.99250 10.47066759 18.13572826 19.00060698
133  1  0.99250  4.18826704 21.76287391 19.00060698
134  1  0.99250  6.28240056  3.62714565 19.00060698
135  1  0.99250  8.37653407  7.25429130 19.00060698
136  1  0.99250 10.47066759 10.88143696 19.00060698
137  1  0.99250 12.56480111 14.50858261 19.00060698
138  1  0.99250 14.65893463 18.13572826 19.00060698
139  1  0.99250  8.37653407 21.76287391 19.00060698
140  1  0.99250 10.47066759  3.62714565 19.00060698
141  1  0.99250 12.56480111  7.25429130 19.00060698
142  1  0.99250 14.65893463 10.88143696 19.00060698
143  1  0.99250 12.56480111 21.76287391 19.00060698
144  1  0.99250 14.65893463  3.62714565 19.00060698
145  2 -0.82088 -0.00000000 14.50858261  0.00000000
146  2 -0.82088  2.09413352 18.13572826  0.00000000
147  2 -0.82088 -0.00000000  7.25429130  0.00000000
148  2 -0.82088  2.09413352 10.88143696  0.00000000
149  2 -0.82088  4.18826704 14.50858261  0.00000000
150  2 -0.82088  6.28240056 18.13572826  0.00000000
151  2 -0.82088  0.00000000  0.00000000  0.00000000
152  2 -0.82088  2.09413352  3.62714565  0.00000000
153  2 -0.82088  4.18826704  7.25429130  0.00000000
154  2 -0.82088  6.28240056 10.88143696  0.00000000
155  2 -0.82088  8.37653407 14.50858261  0.00000000
156  2 -0.82088 10.47066759 18.13572826  0.00000000
157  2 -0.82088  4.18826704 -0.00000000  0.00000000
158  2 -0.82088  6.28240056  3.62714565  0.00000000
159  2 -0.82088  8.37653407  7.25429130  0.00000000
160  2 -0.82088 10.47066759 10.88143696  0.00000000
161  2 -0.82088 12.56480111 14.50858261  0.00000000
162  2 -0.82088 14.65893463 18.13572826  0.00000000
163  2 -0.82088  8.37653407 -0.00000000  0.00000000
164  2 -0.82088 10.47066759  3.62714565  0.00000000
165  2 -0.82088 12.56480111  7.25429130  0.00000000
166  2 -0.82088 14.65893463 10.88143696  0.00000000
167  2 -0.82088 12.56480111 21.76287391  0.00000000
168  2 -0.82088 14.65893463  3.62714565  0.00000000
169  2 -0.58757  2.09413352 15.71763116 27.90924467
170  2 -0.58757  4.18826704 19.34477681 27.90924467
171  2 -0.58757  2.09413352  8.46333985 27.90924467
172  2 -0.58757  4.18826704 12.09048551 27.90924467
173  2 -0.58757  6.28240056 15.71763116 27.90924467
174  2 -0.58757  8.37653407 19.34477681 27.90924467
175  2 -0.58757  2.09413352  1.20904855 27.90924467
176  2 -0.58757  4.18826704  4.83619420 27.90924467
177  2 -0.58757  6.28240056  8.46333985 27.90924467
178  2 -0.58757  8.37653407 12.09048551 27.90924467
179  2 -0.58757 10.47066759 15.71763116 27.90924467
180  2 -0.58757 12.56480111 19.34477681 27.90924467
181  2 -0.58757  6.28240056  1.20904855 27.90924467
182  2 -0.58757  8.37653407  4.83619420 27.90924467
183  2 -0.58757 10.47066759  8.46333985 27.90924467
184  2 -0.58757 12.56480111 12.09048551 27.90924467
185  2 -0.58757 14.65893463 15.71763116 27.90924467
186  2 -0.58757 16.75306815 19.34477681 27.90924467
187  2 -0.58757 10.47066759  1.20904855 27.90924467
188  2 -0.58757 12.56480111  4.83619420 27.90924467
189  2 -0.58757 14.65893463  8.46333985 27.90924467
190  2 -0.58757 16.75306815 12.09048551 27.90924467
191  2 -0.58757 14.65893463  1.20904855 27.90924467
192  2 -0.58757 16.75306815  4.83619420 27.90924467
193  2 -0.58858 -0.00000000 14.50858261 24.45733915
194  2 -0.58858  2.09413352 18.13572826 24.45733915
195  2 -0.58858 16.75306815  7.25429130 24.45733915
196  2 -0.58858  2.09413352 10.88143696 24.45733915
197  2 -0.58858  4.18826704 14.50858261 24.45733915
198  2 -0.58858  6.28240056 18.13572826 24.45733915
199  2 -0.58858 -0.00000000  0.00000000 24.45733915
200  2 -0.58858  2.09413352  3.62714565 24.45733915
201  2 -0.58858  4.18826704  7.25429130 24.45733915
202  2 -0.58858  6.28240056 10.88143696 24.45733915
203  2 -0.58858  8.37653407 14.50858261 24.45733915
204  2 -0.58858 10.47066759 18.13572826 24.45733915
205  2 -0.58858  4.18826704  0.00000000 24.45733915
206  2 -0.58858  6.28240056  3.62714565 24.45733915
207  2 -0.58858  8.37653407  7.25429130 24.45733915
208  2 -0.58858 10.47066759 10.88143696 24.45733915
209  2 -0.58858 12.56480111 14.50858261 24.45733915
210  2 -0.58858 14.65893463 18.13572826 24.45733915
211  2 -0.58858  8.37653407  0.00000000 24.45733915
212  2 -0.58858 10.47066759  3.62714565 24.45733915
213  2 -0.58858 12.56480111  7.25429130 24.45733915
214  2 -0.58858 14.65893463 10.88143696 24.45733915
215  2 -0.58858 12.56480111 21.76287391 24.45733915
216  2 -0.58858 14.65893463  3.62714565 24.45733915
217  2 -0.81572  2.09413352 13.29953406 10.47331676
218  2 -0.81572  4.18826704 16.92667971 10.47331676
219  2 -0.81572  2.09413352  6.04524275 10.47331676
220  2 -0.81572  4.18826704  9.67238841 10.47331676
221  2 -0.81572  6.28240056 13.29953406 10.47331676
222  2 -0.81572  8.37653407 16.92667971 10.47331676
223  2 -0.81572  2.09413352 20.55382536 10.47331676
224  2 -0.81572  4.18826704  2.41809710 10.47331676
225  2 -0.81572  6.28240056  6.04524275 10.47331676
226  2 -0.81572  8.37653407  9.67238841 10.47331676
227  2 -0.81572 10.47066759 13.29953406 10.47331676
228  2 -0.81572 12.56480111 16.92667971 10.47331676
229  2 -0.81572  6.28240056 20.55382536 10.47331676
230  2 -0.81572  8.37653407  2.41809710 10.47331676
231  2 -0.81572 10.47066759  6.04524275 10.47331676
232  2 -0.81572 12.56480111  9.67238841 10.47331676
233  2 -0.81572 14.65893463 13.29953406 10.47331676
234  2 -0.81572 16.75306815 16.92667971 10.47331676
235  2 -0.81572 10.47066759 20.55382536 10.47331676
236  2 -0.81572 12.56480111  2.41809710 10.47331676
237  2 -0.81572 14.65893463  6.04524275 10.47331676
238  2 -0.81572 16.75306815  9.67238841 10.47331676
239  2 -0.81572 14.65893463 20.55382536 10.47331676
240  2 -0.81572 16.75306815  2.41809710 10.47331676
241  2 -0.58862 16.75306815 14.50858261  6.96261114
242  2 -0.58862  2.09413352 18.13572826  6.96261114
243  2 -0.58862 -0.00000000  7.25429130  6.96261114
244  2 -0.58862  2.09413352 10.88143696  6.96261114
245  2 -0.58862  4.18826704 14.50858261  6.96261114
246  2 -0.58862  6.28240056 18.13572826  6.96261114
247  2 -0.58862 -0.00000000  0.00000000  6.96261114
248  2 -0.58862  2.09413352  3.62714565  6.96261114
249  2 -0.58862  4.18826704  7.25429130  6.96261114
250  2 -0.58862  6.28240056 10.88143696  6.96261114
251  2 -0.58862  8.37653407 14.50858261  6.96261114
252  2 -0.58862 10.47066759 18.13572826  6.96261114
253  2 -0.58862  4.18826704  0.00000000  6.96261114
254  2 -0.58862  6.28240056  3.62714565  6.96261114
255  2 -0.58862  8.37653407  7.25429130  6.96261114
256  2 -0.58862 10.47066759 10.88143696  6.96261114
257  2 -0.58862 12.56480111 14.50858261  6.96261114
258  2 -0.58862 14.65893463 18.13572826  6.96261114
259  2 -0.58862  8.37653407  0.00000000  6.96261114
260  2 -0.58862 10.47066759  3.62714565  6.96261114
261  2 -0.58862 12.56480111  7.25429130  6.96261114
262  2 -0.58862 14.65893463 10.88143696  6.96261114
263  2 -0.58862 12.56480111 21.76287391  6.96261114
264  2 -0.58862 14.65893463  3.62714565  6.96261114
265  2 -0.58757  2.09413352 13.29953406  3.51070562
266  2 -0.58757  4.18826704 16.92667971  3.51070562
267  2 -0.58757  2.09413352  6.04524275  3.51070562
268  2 -0.58757  4.18826704  9.67238841  3.51070562
269  2 -0.58757  6.28240056 13.29953406  3.51070562
270  2 -0.58757  8.37653407 16.92667971  3.51070562
271  2 -0.58757  2.09413352 20.55382536  3.51070562
272  2 -0.58757  4.18826704  2.41809710  3.51070562
273  2 -0.58757  6.28240056  6.04524275  3.51070562
274  2 -0.58757  8.37653407  9.67238841  3.51070562
275  2 -0.58757 10.47066759 13.29953406  3.51070562
276  2 -0.58757 12.56480111 16.92667971  3.51070562
277  2 -0.58757  6.28240056 20.55382536  3.51070562
278  2 -0.58757  8.37653407  2.41809710  3.51070562
279  2 -0.58757 10.47066759  6.04524275  3.51070562
280  2 -0.58757 12.56480111  9.67238841  3.51070562
281  2 -0.58757 14.65893463 13.29953406  3.51070562
282  2 -0.58757 16.75306815 16.92667971  3.51070562
283  2 -0.58757 10.47066759 20.55382536  3.51070562
284  2 -0.58757 12.56480111  2.41809710  3.51070562
285  2 -0.58757 14.65893463  6.04524275  3.51070562
286  2 -0.58757 16.75306815  9.67238841  3.51070562
287  2 -0.58757 14.65893463 20.55382536  3.51070562
288  2 -0.58757 16.75306815  2.41809710  3.51070562
289  2 -0.81572  2.09413352 15.71763116 20.94663353
290  2 -0.81572  4.18826704 19.34477681 20.94663353
291  2 -0.81572  2.09413352  8.46333985 20.94663353
292  2 -0.81572  4.18826704 12.09048551 20.94663353
293  2 -0.81572  6.28240056 15.71763116 20.94663353
294  2 -0.81572  8.37653407 19.34477681 20.94663353
295  2 -0.81572  2.09413352  1.20904855 20.94663353
296  2 -0.81572  4.18826704  4.83619420 20.94663353
297  2 -0.81572  6.28240056  8.46333985 20.94663353
298  2 -0.81572  8.37653407 12.09048551 20.94663353
299  2 -0.81572 10.47066759 15.71763116 20.94663353
300  2 -0.81572 12.56480111 19.34477681 20.94663353
301  2 -0.81572  6.28240056  1.20904855 20.94663353
302  2 -0.81572  8.37653407  4.83619420 20.94663353
303  2 -0.81572 10.47066759  8.46333985 20.94663353
304  2 -0.81572 12.56480111 12.09048551 20.94663353
305  2 -0.81572 14.65893463 15.71763116 20.94663353
306  2 -0.81572 16.75306815 19.34477681 20.94663353
307  2 -0.81572 10.47066759  1.20904855 20.94663353
308  2 -0.81572 12.56480111  4.83619420 20.94663353
309  2 -0.81572 14.65893463  8.46333985 20.94663353
310  2 -0.81572 16.75306815 12.09048551 20.94663353
311  2 -0.81572 14.65893463  1.20904855 20.94663353
312  2 -0.81572 16.75306815  4.83619420 20.94663353
313  2 -0.58875  2.09413352 13.29953406 17.43592790
314  2 -0.58875  4.18826704 16.92667971 17.43592790
315  2 -0.58875  2.09413352  6.04524275 17.43592790
316  2 -0.58875  4.18826704  9.67238841 17.43592790
317  2 -0.58875  6.28240056 13.29953406 17.43592790
318  2 -0.58875  8.37653407 16.92667971 17.43592790
319  2 -0.58875  2.09413352 20.55382536 17.43592790
320  2 -0.58875  4.18826704  2.41809710 17.43592790
321  2 -0.58875  6.28240056  6.04524275 17.43592790
322  2 -0.58875  8.37653407  9.67238841 17.43592790
323  2 -0.58875 10.47066759 13.29953406 17.43592790
324  2 -0.58875 12.56480111 16.92667971 17.43592790
325  2 -0.58875  6.28240056 20.55382536 17.43592790
326  2 -0.58875  8.37653407  2.41809710 17.43592790
327  2 -0.58875 10.47066759  6.04524275 17.43592790
328  2 -0.58875 12.56480111  9.67238841 17.43592790
329  2 -0.58875 14.65893463 13.29953406 17.43592790
330  2 -0.58875 16.75306815 16.92667971 17.43592790
331  2 -0.58875 10.47066759 20.55382536 17.43592790
332  2 -0.58875 12.56480111  2.41809710 17.43592790
333  2 -0.58875 14.65893463  6.04524275 17.43592790
334  2 -0.58875 16.75306815  9.67238841 17.43592790
335  2 -0.58875 14.65893463 20.55382536 17.43592790
336  2 -0.58875 16.75306815  2.41809710 17.43592790
337  2 -0.58890  2.09413352 15.71763116 13.98402238
338  2 -0.58890  4.18826704 19.34477681 13.98402238
339  2 -0.58890  2.09413352  8.46333985 13.98402238
340  2 -0.58890  4.18826704 12.09048551 13.98402238
341  2 -0.58890  6.28240056 15.71763116 13.98402238
342  2 -0.58890  8.37653407 19.34477681 13.98402238
343  2 -0.58890  2.09413352  1.20904855 13.98402238
344  2 -0.58890  4.18826704  4.83619420 13.98402238
345  2 -0.58890  6.28240056  8.46333985 13.98402238
346  2 -0.58890  8.37653407 12.09048551 13.98402238
347  2 -0.58890 10.47066759 15.71763116 13.98402238
348  2 -0.58890 12.56480111 19.34477681 13.98402238
349  2 -0.58890  6.28240056  1.20904855 13.98402238
350  2 -0.58890  8.37653407  4.83619420 13.98402238
351  2 -0.58890 10.47066759  8.46333985 13.98402238
352  2 -0.58890 12.56480111 12.09048551 13.98402238
353  2 -0.58890 14.65893463 15.71763116 13.98402238
354  2 -0.58890 16.75306815 19.34477681 13.98402238
355  2 -0.58890 10.47066759  1.20904855 13.98402238
356  2 -0.58890 12.56480111  4.83619420 13.98402238
357  2 -0.58890 14.65893463  8.46333985 13.98402238
358  2 -0.58890 16.75306815 12.09048551 13.98402238
359  2 -0.58890 14.65893463  1.20904855 13.98402238
360  2 -0.58890 16.75306815  4.83619420 13.98402238
