(written by ASE)

10044 atoms
3 atom types

0.0      127.80955069946849  xlo xhi
0.0      110.68631775201484  ylo yhi
0.0      36.261363669361494  zlo zhi

Masses

1  12.011
2  63.546
3  15.999 


Atoms # atomic

     1   2                       0                       0                      15
     2   2      2.5561910139893693                       0                      15
     3   2      5.1123820279787386                       0                      15
     4   2      7.6685730419681084                       0                      15
     5   2      10.224764055957477                       0                      15
     6   2      12.780955069946847                       0                      15
     7   2      15.337146083936217                       0                      15
     8   2      17.893337097925585                       0                      15
     9   2      20.449528111914955                       0                      15
    10   2      23.005719125904324                       0                      15
    11   2      25.561910139893694                       0                      15
    12   2      28.118101153883064                       0                      15
    13   2      30.674292167872434                       0                      15
    14   2        33.2304831818618                       0                      15
    15   2       35.78667419585117                       0                      15
    16   2      38.342865209840539                       0                      15
    17   2      40.899056223829909                       0                      15
    18   2      43.455247237819279                       0                      15
    19   2      46.011438251808649                       0                      15
    20   2      48.567629265798018                       0                      15
    21   2      51.123820279787388                       0                      15
    22   2      53.680011293776758                       0                      15
    23   2      56.236202307766128                       0                      15
    24   2      58.792393321755497                       0                      15
    25   2      61.348584335744867                       0                      15
    26   2      63.904775349734237                       0                      15
    27   2        66.4609663637236                       0                      15
    28   2      69.017157377712962                       0                      15
    29   2      71.573348391702339                       0                      15
    30   2      74.129539405691716                       0                      15
    31   2      76.685730419681079                       0                      15
    32   2      79.241921433670441                       0                      15
    33   2      81.798112447659818                       0                      15
    34   2      84.354303461649195                       0                      15
    35   2      86.910494475638558                       0                      15
    36   2       89.46668548962792                       0                      15
    37   2      92.022876503617297                       0                      15
    38   2      94.579067517606674                       0                      15
    39   2      97.135258531596037                       0                      15
    40   2        99.6914495455854                       0                      15
    41   2      102.24764055957478                       0                      15
    42   2      104.80383157356415                       0                      15
    43   2      107.36002258755352                       0                      15
    44   2      109.91621360154288                       0                      15
    45   2      112.47240461553226                       0                      15
    46   2      115.02859562952163                       0                      15
    47   2      117.58478664351099                       0                      15
    48   2      120.14097765750036                       0                      15
    49   2      122.69716867148973                       0                      15
    50   2      125.25335968547911                       0                      15
    51   2      1.2780955069946847       2.213726355040297                      15
    52   2      3.8342865209840542       2.213726355040297                      15
    53   2      6.3904775349734235       2.213726355040297                      15
    54   2      8.9466685489627924       2.213726355040297                      15
    55   2      11.502859562952162       2.213726355040297                      15
    56   2      14.059050576941532       2.213726355040297                      15
    57   2        16.6152415909309       2.213726355040297                      15
    58   2       19.17143260492027       2.213726355040297                      15
    59   2      21.727623618909639       2.213726355040297                      15
    60   2      24.283814632899009       2.213726355040297                      15
    61   2      26.840005646888379       2.213726355040297                      15
    62   2      29.396196660877749       2.213726355040297                      15
    63   2      31.952387674867119       2.213726355040297                      15
    64   2      34.508578688856481       2.213726355040297                      15
    65   2      37.064769702845858       2.213726355040297                      15
    66   2      39.620960716835221       2.213726355040297                      15
    67   2      42.177151730824598       2.213726355040297                      15
    68   2       44.73334274481396       2.213726355040297                      15
    69   2      47.289533758803337       2.213726355040297                      15
    70   2        49.8457247727927       2.213726355040297                      15
    71   2      52.401915786782077       2.213726355040297                      15
    72   2      54.958106800771439       2.213726355040297                      15
    73   2      57.514297814760816       2.213726355040297                      15
    74   2      60.070488828750179       2.213726355040297                      15
    75   2      62.626679842739556       2.213726355040297                      15
    76   2      65.182870856728911       2.213726355040297                      15
    77   2      67.739061870718288       2.213726355040297                      15
    78   2      70.295252884707651       2.213726355040297                      15
    79   2      72.851443898697028       2.213726355040297                      15
    80   2       75.40763491268639       2.213726355040297                      15
    81   2      77.963825926675767       2.213726355040297                      15
    82   2       80.52001694066513       2.213726355040297                      15
    83   2      83.076207954654507       2.213726355040297                      15
    84   2      85.632398968643869       2.213726355040297                      15
    85   2      88.188589982633246       2.213726355040297                      15
    86   2      90.744780996622609       2.213726355040297                      15
    87   2      93.300972010611986       2.213726355040297                      15
    88   2      95.857163024601348       2.213726355040297                      15
    89   2      98.413354038590725       2.213726355040297                      15
    90   2      100.96954505258009       2.213726355040297                      15
    91   2      103.52573606656946       2.213726355040297                      15
    92   2      106.08192708055883       2.213726355040297                      15
    93   2       108.6381180945482       2.213726355040297                      15
    94   2      111.19430910853757       2.213726355040297                      15
    95   2      113.75050012252694       2.213726355040297                      15
    96   2      116.30669113651631       2.213726355040297                      15
    97   2      118.86288215050568       2.213726355040297                      15
    98   2      121.41907316449505       2.213726355040297                      15
    99   2      123.97526417848442       2.213726355040297                      15
   100   2      126.53145519247379       2.213726355040297                      15
   101   2                       0       4.427452710080594                      15
   102   2      2.5561910139893693       4.427452710080594                      15
   103   2      5.1123820279787386       4.427452710080594                      15
   104   2      7.6685730419681084       4.427452710080594                      15
   105   2      10.224764055957477       4.427452710080594                      15
   106   2      12.780955069946847       4.427452710080594                      15
   107   2      15.337146083936217       4.427452710080594                      15
   108   2      17.893337097925585       4.427452710080594                      15
   109   2      20.449528111914955       4.427452710080594                      15
   110   2      23.005719125904324       4.427452710080594                      15
   111   2      25.561910139893694       4.427452710080594                      15
   112   2      28.118101153883064       4.427452710080594                      15
   113   2      30.674292167872434       4.427452710080594                      15
   114   2        33.2304831818618       4.427452710080594                      15
   115   2       35.78667419585117       4.427452710080594                      15
   116   2      38.342865209840539       4.427452710080594                      15
   117   2      40.899056223829909       4.427452710080594                      15
   118   2      43.455247237819279       4.427452710080594                      15
   119   2      46.011438251808649       4.427452710080594                      15
   120   2      48.567629265798018       4.427452710080594                      15
   121   2      51.123820279787388       4.427452710080594                      15
   122   2      53.680011293776758       4.427452710080594                      15
   123   2      56.236202307766128       4.427452710080594                      15
   124   2      58.792393321755497       4.427452710080594                      15
   125   2      61.348584335744867       4.427452710080594                      15
   126   2      63.904775349734237       4.427452710080594                      15
   127   2        66.4609663637236       4.427452710080594                      15
   128   2      69.017157377712962       4.427452710080594                      15
   129   2      71.573348391702339       4.427452710080594                      15
   130   2      74.129539405691716       4.427452710080594                      15
   131   2      76.685730419681079       4.427452710080594                      15
   132   2      79.241921433670441       4.427452710080594                      15
   133   2      81.798112447659818       4.427452710080594                      15
   134   2      84.354303461649195       4.427452710080594                      15
   135   2      86.910494475638558       4.427452710080594                      15
   136   2       89.46668548962792       4.427452710080594                      15
   137   2      92.022876503617297       4.427452710080594                      15
   138   2      94.579067517606674       4.427452710080594                      15
   139   2      97.135258531596037       4.427452710080594                      15
   140   2        99.6914495455854       4.427452710080594                      15
   141   2      102.24764055957478       4.427452710080594                      15
   142   2      104.80383157356415       4.427452710080594                      15
   143   2      107.36002258755352       4.427452710080594                      15
   144   2      109.91621360154288       4.427452710080594                      15
   145   2      112.47240461553226       4.427452710080594                      15
   146   2      115.02859562952163       4.427452710080594                      15
   147   2      117.58478664351099       4.427452710080594                      15
   148   2      120.14097765750036       4.427452710080594                      15
   149   2      122.69716867148973       4.427452710080594                      15
   150   2      125.25335968547911       4.427452710080594                      15
   151   2      1.2780955069946847      6.6411790651208911                      15
   152   2      3.8342865209840542      6.6411790651208911                      15
   153   2      6.3904775349734235      6.6411790651208911                      15
   154   2      8.9466685489627924      6.6411790651208911                      15
   155   2      11.502859562952162      6.6411790651208911                      15
   156   2      14.059050576941532      6.6411790651208911                      15
   157   2        16.6152415909309      6.6411790651208911                      15
   158   2       19.17143260492027      6.6411790651208911                      15
   159   2      21.727623618909639      6.6411790651208911                      15
   160   2      24.283814632899009      6.6411790651208911                      15
   161   2      26.840005646888379      6.6411790651208911                      15
   162   2      29.396196660877749      6.6411790651208911                      15
   163   2      31.952387674867119      6.6411790651208911                      15
   164   2      34.508578688856481      6.6411790651208911                      15
   165   2      37.064769702845858      6.6411790651208911                      15
   166   2      39.620960716835221      6.6411790651208911                      15
   167   2      42.177151730824598      6.6411790651208911                      15
   168   2       44.73334274481396      6.6411790651208911                      15
   169   2      47.289533758803337      6.6411790651208911                      15
   170   2        49.8457247727927      6.6411790651208911                      15
   171   2      52.401915786782077      6.6411790651208911                      15
   172   2      54.958106800771439      6.6411790651208911                      15
   173   2      57.514297814760816      6.6411790651208911                      15
   174   2      60.070488828750179      6.6411790651208911                      15
   175   2      62.626679842739556      6.6411790651208911                      15
   176   2      65.182870856728911      6.6411790651208911                      15
   177   2      67.739061870718288      6.6411790651208911                      15
   178   2      70.295252884707651      6.6411790651208911                      15
   179   2      72.851443898697028      6.6411790651208911                      15
   180   2       75.40763491268639      6.6411790651208911                      15
   181   2      77.963825926675767      6.6411790651208911                      15
   182   2       80.52001694066513      6.6411790651208911                      15
   183   2      83.076207954654507      6.6411790651208911                      15
   184   2      85.632398968643869      6.6411790651208911                      15
   185   2      88.188589982633246      6.6411790651208911                      15
   186   2      90.744780996622609      6.6411790651208911                      15
   187   2      93.300972010611986      6.6411790651208911                      15
   188   2      95.857163024601348      6.6411790651208911                      15
   189   2      98.413354038590725      6.6411790651208911                      15
   190   2      100.96954505258009      6.6411790651208911                      15
   191   2      103.52573606656946      6.6411790651208911                      15
   192   2      106.08192708055883      6.6411790651208911                      15
   193   2       108.6381180945482      6.6411790651208911                      15
   194   2      111.19430910853757      6.6411790651208911                      15
   195   2      113.75050012252694      6.6411790651208911                      15
   196   2      116.30669113651631      6.6411790651208911                      15
   197   2      118.86288215050568      6.6411790651208911                      15
   198   2      121.41907316449505      6.6411790651208911                      15
   199   2      123.97526417848442      6.6411790651208911                      15
   200   2      126.53145519247379      6.6411790651208911                      15
   201   2                       0      8.8549054201611881                      15
   202   2      2.5561910139893693      8.8549054201611881                      15
   203   2      5.1123820279787386      8.8549054201611881                      15
   204   2      7.6685730419681084      8.8549054201611881                      15
   205   2      10.224764055957477      8.8549054201611881                      15
   206   2      12.780955069946847      8.8549054201611881                      15
   207   2      15.337146083936217      8.8549054201611881                      15
   208   2      17.893337097925585      8.8549054201611881                      15
   209   2      20.449528111914955      8.8549054201611881                      15
   210   2      23.005719125904324      8.8549054201611881                      15
   211   2      25.561910139893694      8.8549054201611881                      15
   212   2      28.118101153883064      8.8549054201611881                      15
   213   2      30.674292167872434      8.8549054201611881                      15
   214   2        33.2304831818618      8.8549054201611881                      15
   215   2       35.78667419585117      8.8549054201611881                      15
   216   2      38.342865209840539      8.8549054201611881                      15
   217   2      40.899056223829909      8.8549054201611881                      15
   218   2      43.455247237819279      8.8549054201611881                      15
   219   2      46.011438251808649      8.8549054201611881                      15
   220   2      48.567629265798018      8.8549054201611881                      15
   221   2      51.123820279787388      8.8549054201611881                      15
   222   2      53.680011293776758      8.8549054201611881                      15
   223   2      56.236202307766128      8.8549054201611881                      15
   224   2      58.792393321755497      8.8549054201611881                      15
   225   2      61.348584335744867      8.8549054201611881                      15
   226   2      63.904775349734237      8.8549054201611881                      15
   227   2        66.4609663637236      8.8549054201611881                      15
   228   2      69.017157377712962      8.8549054201611881                      15
   229   2      71.573348391702339      8.8549054201611881                      15
   230   2      74.129539405691716      8.8549054201611881                      15
   231   2      76.685730419681079      8.8549054201611881                      15
   232   2      79.241921433670441      8.8549054201611881                      15
   233   2      81.798112447659818      8.8549054201611881                      15
   234   2      84.354303461649195      8.8549054201611881                      15
   235   2      86.910494475638558      8.8549054201611881                      15
   236   2       89.46668548962792      8.8549054201611881                      15
   237   2      92.022876503617297      8.8549054201611881                      15
   238   2      94.579067517606674      8.8549054201611881                      15
   239   2      97.135258531596037      8.8549054201611881                      15
   240   2        99.6914495455854      8.8549054201611881                      15
   241   2      102.24764055957478      8.8549054201611881                      15
   242   2      104.80383157356415      8.8549054201611881                      15
   243   2      107.36002258755352      8.8549054201611881                      15
   244   2      109.91621360154288      8.8549054201611881                      15
   245   2      112.47240461553226      8.8549054201611881                      15
   246   2      115.02859562952163      8.8549054201611881                      15
   247   2      117.58478664351099      8.8549054201611881                      15
   248   2      120.14097765750036      8.8549054201611881                      15
   249   2      122.69716867148973      8.8549054201611881                      15
   250   2      125.25335968547911      8.8549054201611881                      15
   251   2      1.2780955069946847      11.068631775201485                      15
   252   2      3.8342865209840542      11.068631775201485                      15
   253   2      6.3904775349734235      11.068631775201485                      15
   254   2      8.9466685489627924      11.068631775201485                      15
   255   2      11.502859562952162      11.068631775201485                      15
   256   2      14.059050576941532      11.068631775201485                      15
   257   2        16.6152415909309      11.068631775201485                      15
   258   2       19.17143260492027      11.068631775201485                      15
   259   2      21.727623618909639      11.068631775201485                      15
   260   2      24.283814632899009      11.068631775201485                      15
   261   2      26.840005646888379      11.068631775201485                      15
   262   2      29.396196660877749      11.068631775201485                      15
   263   2      31.952387674867119      11.068631775201485                      15
   264   2      34.508578688856481      11.068631775201485                      15
   265   2      37.064769702845858      11.068631775201485                      15
   266   2      39.620960716835221      11.068631775201485                      15
   267   2      42.177151730824598      11.068631775201485                      15
   268   2       44.73334274481396      11.068631775201485                      15
   269   2      47.289533758803337      11.068631775201485                      15
   270   2        49.8457247727927      11.068631775201485                      15
   271   2      52.401915786782077      11.068631775201485                      15
   272   2      54.958106800771439      11.068631775201485                      15
   273   2      57.514297814760816      11.068631775201485                      15
   274   2      60.070488828750179      11.068631775201485                      15
   275   2      62.626679842739556      11.068631775201485                      15
   276   2      65.182870856728911      11.068631775201485                      15
   277   2      67.739061870718288      11.068631775201485                      15
   278   2      70.295252884707651      11.068631775201485                      15
   279   2      72.851443898697028      11.068631775201485                      15
   280   2       75.40763491268639      11.068631775201485                      15
   281   2      77.963825926675767      11.068631775201485                      15
   282   2       80.52001694066513      11.068631775201485                      15
   283   2      83.076207954654507      11.068631775201485                      15
   284   2      85.632398968643869      11.068631775201485                      15
   285   2      88.188589982633246      11.068631775201485                      15
   286   2      90.744780996622609      11.068631775201485                      15
   287   2      93.300972010611986      11.068631775201485                      15
   288   2      95.857163024601348      11.068631775201485                      15
   289   2      98.413354038590725      11.068631775201485                      15
   290   2      100.96954505258009      11.068631775201485                      15
   291   2      103.52573606656946      11.068631775201485                      15
   292   2      106.08192708055883      11.068631775201485                      15
   293   2       108.6381180945482      11.068631775201485                      15
   294   2      111.19430910853757      11.068631775201485                      15
   295   2      113.75050012252694      11.068631775201485                      15
   296   2      116.30669113651631      11.068631775201485                      15
   297   2      118.86288215050568      11.068631775201485                      15
   298   2      121.41907316449505      11.068631775201485                      15
   299   2      123.97526417848442      11.068631775201485                      15
   300   2      126.53145519247379      11.068631775201485                      15
   301   2                       0      13.282358130241782                      15
   302   2      2.5561910139893693      13.282358130241782                      15
   303   2      5.1123820279787386      13.282358130241782                      15
   304   2      7.6685730419681084      13.282358130241782                      15
   305   2      10.224764055957477      13.282358130241782                      15
   306   2      12.780955069946847      13.282358130241782                      15
   307   2      15.337146083936217      13.282358130241782                      15
   308   2      17.893337097925585      13.282358130241782                      15
   309   2      20.449528111914955      13.282358130241782                      15
   310   2      23.005719125904324      13.282358130241782                      15
   311   2      25.561910139893694      13.282358130241782                      15
   312   2      28.118101153883064      13.282358130241782                      15
   313   2      30.674292167872434      13.282358130241782                      15
   314   2        33.2304831818618      13.282358130241782                      15
   315   2       35.78667419585117      13.282358130241782                      15
   316   2      38.342865209840539      13.282358130241782                      15
   317   2      40.899056223829909      13.282358130241782                      15
   318   2      43.455247237819279      13.282358130241782                      15
   319   2      46.011438251808649      13.282358130241782                      15
   320   2      48.567629265798018      13.282358130241782                      15
   321   2      51.123820279787388      13.282358130241782                      15
   322   2      53.680011293776758      13.282358130241782                      15
   323   2      56.236202307766128      13.282358130241782                      15
   324   2      58.792393321755497      13.282358130241782                      15
   325   2      61.348584335744867      13.282358130241782                      15
   326   2      63.904775349734237      13.282358130241782                      15
   327   2        66.4609663637236      13.282358130241782                      15
   328   2      69.017157377712962      13.282358130241782                      15
   329   2      71.573348391702339      13.282358130241782                      15
   330   2      74.129539405691716      13.282358130241782                      15
   331   2      76.685730419681079      13.282358130241782                      15
   332   2      79.241921433670441      13.282358130241782                      15
   333   2      81.798112447659818      13.282358130241782                      15
   334   2      84.354303461649195      13.282358130241782                      15
   335   2      86.910494475638558      13.282358130241782                      15
   336   2       89.46668548962792      13.282358130241782                      15
   337   2      92.022876503617297      13.282358130241782                      15
   338   2      94.579067517606674      13.282358130241782                      15
   339   2      97.135258531596037      13.282358130241782                      15
   340   2        99.6914495455854      13.282358130241782                      15
   341   2      102.24764055957478      13.282358130241782                      15
   342   2      104.80383157356415      13.282358130241782                      15
   343   2      107.36002258755352      13.282358130241782                      15
   344   2      109.91621360154288      13.282358130241782                      15
   345   2      112.47240461553226      13.282358130241782                      15
   346   2      115.02859562952163      13.282358130241782                      15
   347   2      117.58478664351099      13.282358130241782                      15
   348   2      120.14097765750036      13.282358130241782                      15
   349   2      122.69716867148973      13.282358130241782                      15
   350   2      125.25335968547911      13.282358130241782                      15
   351   2      1.2780955069946847      15.496084485282079                      15
   352   2      3.8342865209840542      15.496084485282079                      15
   353   2      6.3904775349734235      15.496084485282079                      15
   354   2      8.9466685489627924      15.496084485282079                      15
   355   2      11.502859562952162      15.496084485282079                      15
   356   2      14.059050576941532      15.496084485282079                      15
   357   2        16.6152415909309      15.496084485282079                      15
   358   2       19.17143260492027      15.496084485282079                      15